LAMMPS data file generated by OpenBabel
1944 atoms
1512 bonds
1728 angles
648 dihedrals
0 impropers
3 atom types
3 bond types
4 angle types
2 dihedral types
0 improper types
 -22.50000   22.50100 xlo xhi
 -22.50000   22.50100 ylo yhi
 -22.50000   22.50100 zlo zhi



Masses

1 12.0107 # C
2 1.00794 # H
3 15.9994 # O


Atoms

1       1    3   -0.82000   -1.36500   -5.55100    4.63300 #   O
2       1    2    0.41000   -2.14000   -4.97300    4.56900 #   H
3       1    2    0.41000   -1.63100   -6.35300    4.15800 #   H
4       2    3   -0.82000   -8.95900    5.74500   -3.87300 #   O
5       2    2    0.41000   -9.10000    5.15400   -3.11900 #   H
6       2    2    0.41000   -8.10100    5.46900   -4.23000 #   H
7       3    3   -0.82000   10.59000    9.81500    9.55300 #   O
8       3    2    0.41000   11.27600   10.50000    9.55200 #   H
9       3    2    0.41000    9.85900   10.21400    9.05900 #   H
10      4    3   -0.82000   13.26800   10.48700    4.74800 #   O
11      4    2    0.41000   12.30100   10.43300    4.78000 #   H
12      4    2    0.41000   13.52500    9.76200    4.15900 #   H
13      5    3   -0.82000   16.90000   -5.39300   -1.20700 #   O
14      5    2    0.41000   16.49200   -5.78900   -0.42200 #   H
15      5    2    0.41000   17.81800   -5.23400   -0.94000 #   H
16      6    3   -0.82000  -15.37400    3.63700  -10.49900 #   O
17      6    2    0.41000  -16.28400    3.67800  -10.16900 #   H
18      6    2    0.41000  -15.00200    4.50200  -10.27100 #   H
19      7    3   -0.82000    9.96500    5.06400   -1.87300 #   O
20      7    2    0.41000   10.44400    5.90600   -1.89100 #   H
21      7    2    0.41000    9.04600    5.31200   -2.05700 #   H
22      8    3   -0.82000  -20.00500    5.27700   -9.00300 #   O
23      8    2    0.41000  -19.30100    4.72700   -8.62800 #   H
24      8    2    0.41000  -19.96400    5.09500   -9.95400 #   H
25      9    3   -0.82000   11.68100   -1.20700   -5.15800 #   O
26      9    2    0.41000   11.76900   -0.83800   -4.26600 #   H
27      9    2    0.41000   12.52000   -0.98300   -5.58800 #   H
28     10    3   -0.82000   -6.46500    9.01700    0.05500 #   O
29     10    2    0.41000   -5.59100    8.70400   -0.22200 #   H
30     10    2    0.41000   -6.81800    9.45500   -0.73400 #   H
31     11    3   -0.82000   13.27200    2.95600   -2.90700 #   O
32     11    2    0.41000   14.19700    3.24200   -2.85700 #   H
33     11    2    0.41000   12.84900    3.62900   -3.46200 #   H
34     12    3   -0.82000    7.62300    5.38300    9.55400 #   O
35     12    2    0.41000    8.04000    5.74300   10.35000 #   H
36     12    2    0.41000    8.24800    5.59400    8.84500 #   H
37     13    3   -0.82000   -0.26600    6.90600    7.70000 #   O
38     13    2    0.41000   -0.68400    7.75000    7.93000 #   H
39     13    2    0.41000   -0.98500    6.26100    7.77400 #   H
40     14    3   -0.82000    0.32600   -4.69400    9.57300 #   O
41     14    2    0.41000    0.51100   -4.48100   10.50000 #   H
42     14    2    0.41000   -0.64100   -4.66300    9.51400 #   H
43     15    3   -0.82000  -13.67900    9.53900   -0.58500 #   O
44     15    2    0.41000  -14.16700   10.35300   -0.77900 #   H
45     15    2    0.41000  -14.20800    8.84300   -1.00400 #   H
46     16    3   -0.82000   -6.45600   -3.05200    1.28900 #   O
47     16    2    0.41000   -6.61000   -2.11400    1.10300 #   H
48     16    2    0.41000   -6.99100   -3.51400    0.62700 #   H
49     17    3   -0.82000  -11.12000   -0.74800   -3.93100 #   O
50     17    2    0.41000  -11.26500   -0.37900   -3.04700 #   H
51     17    2    0.41000  -11.09600   -1.70600   -3.78400 #   H
52     18    3   -0.82000  -16.78200    2.90800   -5.69400 #   O
53     18    2    0.41000  -16.73600    3.86500   -5.54800 #   H
54     18    2    0.41000  -16.23900    2.76500   -6.48400 #   H
55     19    3   -0.82000    7.00800    4.26500   -4.35300 #   O
56     19    2    0.41000    6.40100    4.53100   -3.64700 #   H
57     19    2    0.41000    6.66300    3.40900   -4.64900 #   H
58     20    3   -0.82000    2.18700    9.98300    1.27200 #   O
59     20    2    0.41000    2.58000   10.37200    2.06700 #   H
60     20    2    0.41000    2.93100    9.54100    0.83500 #   H
61     21    3   -0.82000   -6.56600   -4.78700   -7.18200 #   O
62     21    2    0.41000   -6.54500   -3.82100   -7.10600 #   H
63     21    2    0.41000   -5.78400   -4.99800   -7.71400 #   H
64     22    3   -0.82000   10.05800    5.03500   -7.32300 #   O
65     22    2    0.41000    9.12900    4.98200   -7.05300 #   H
66     22    2    0.41000   10.02300    5.01700   -8.29200 #   H
67     23    3   -0.82000   19.36500    3.24800    2.39900 #   O
68     23    2    0.41000   18.73700    3.47200    3.10200 #   H
69     23    2    0.41000   18.90100    2.57800    1.87500 #   H
70     24    3   -0.82000   16.58700    0.16400    1.92900 #   O
71     24    2    0.41000   16.49100   -0.70600    2.34500 #   H
72     24    2    0.41000   15.98600    0.12900    1.17000 #   H
73     25    3   -0.82000  -16.57000   -0.69800   -6.68300 #   O
74     25    2    0.41000  -17.26000   -0.54500   -6.02000 #   H
75     25    2    0.41000  -17.04600   -1.09000   -7.43100 #   H
76     26    3   -0.82000  -20.57500    7.42800    3.88000 #   O
77     26    2    0.41000  -20.88700    7.43900    4.79800 #   H
78     26    2    0.41000  -21.32900    7.08200    3.38000 #   H
79     27    3   -0.82000  -15.99800   -3.92300  -10.14400 #   O
80     27    2    0.41000  -15.12900   -3.53000  -10.31700 #   H
81     27    2    0.41000  -15.89600   -4.84700  -10.41700 #   H
82     28    3   -0.82000   21.23900   -5.35800   -0.75300 #   O
83     28    2    0.41000   22.00000   -4.76900   -0.86600 #   H
84     28    2    0.41000   20.52400   -4.91300   -1.23300 #   H
85     29    3   -0.82000  -19.53300   -1.79300   -2.28500 #   O
86     29    2    0.41000  -19.35700   -1.28000   -1.48200 #   H
87     29    2    0.41000  -19.44500   -2.71400   -1.99900 #   H
88     30    3   -0.82000   15.21500  -10.13700   -5.84200 #   O
89     30    2    0.41000   14.75100  -10.50000   -5.07300 #   H
90     30    2    0.41000   16.11000  -10.50000   -5.76900 #   H
91     31    3   -0.82000  -17.47600   -1.45700   -3.10500 #   O
92     31    2    0.41000  -17.20600   -0.77900   -2.46800 #   H
93     31    2    0.41000  -17.86500   -0.95100   -3.83500 #   H
94     32    3   -0.82000    8.25400   -2.27900   10.10000 #   O
95     32    2    0.41000    8.21300   -1.32100    9.95900 #   H
96     32    2    0.41000    7.61800   -2.63700    9.46200 #   H
97     33    3   -0.82000   -7.07600    1.50900  -10.50000 #   O
98     33    2    0.41000   -6.37000    1.92500   -9.98300 #   H
99     33    2    0.41000   -7.85900    2.04500  -10.30200 #   H
100    34    3   -0.82000  -11.72500    8.01600   -3.86600 #   O
101    34    2    0.41000  -11.63900    8.87200   -3.42000 #   H
102    34    2    0.41000  -12.67600    7.83100   -3.83700 #   H
103    35    3   -0.82000   -5.23600    2.61500   -3.81600 #   O
104    35    2    0.41000   -5.08200    3.19700   -3.05700 #   H
105    35    2    0.41000   -5.52400    3.21700   -4.51900 #   H
106    36    3   -0.82000   -1.28000    1.42900   -0.02600 #   O
107    36    2    0.41000   -0.36600    1.74100   -0.10000 #   H
108    36    2    0.41000   -1.45700    1.01700   -0.88500 #   H
109    37    3   -0.82000  -19.11100    2.58800    2.92500 #   O
110    37    2    0.41000  -18.51200    3.15200    3.43700 #   H
111    37    2    0.41000  -19.03800    1.72000    3.35100 #   H
112    38    3   -0.82000   -3.70100    7.73300   -9.69100 #   O
113    38    2    0.41000   -4.07600    8.60000   -9.47600 #   H
114    38    2    0.41000   -4.43700    7.11800   -9.55200 #   H
115    39    3   -0.82000   -7.17500   -9.07700   -5.27200 #   O
116    39    2    0.41000   -7.87600   -8.54200   -4.87100 #   H
117    39    2    0.41000   -7.54600   -9.97200   -5.29300 #   H
118    40    3   -0.82000   19.17000   -1.24100   -4.33000 #   O
119    40    2    0.41000   20.08300   -1.02800   -4.08300 #   H
120    40    2    0.41000   18.67000   -0.44800   -4.08500 #   H
121    41    3   -0.82000    6.94800   -6.38200   -3.04600 #   O
122    41    2    0.41000    6.40800   -7.14600   -3.29800 #   H
123    41    2    0.41000    7.82400   -6.58400   -3.40900 #   H
124    42    3   -0.82000  -13.24600   -6.87300    2.79100 #   O
125    42    2    0.41000  -13.54200   -5.95300    2.72300 #   H
126    42    2    0.41000  -13.91300   -7.37100    2.29500 #   H
127    43    3   -0.82000    1.21000    3.24600   -6.64200 #   O
128    43    2    0.41000    1.16000    2.48200   -6.04900 #   H
129    43    2    0.41000    1.73100    2.92600   -7.39300 #   H
130    44    3   -0.82000   -8.77500   -2.43000    2.15800 #   O
131    44    2    0.41000   -8.30000   -3.21300    2.47300 #   H
132    44    2    0.41000   -8.88800   -2.59100    1.20900 #   H
133    45    3   -0.82000  -11.15900   -1.23500   -7.25800 #   O
134    45    2    0.41000  -11.45600   -0.42200   -6.82100 #   H
135    45    2    0.41000  -10.27600   -1.01300   -7.59100 #   H
136    46    3   -0.82000  -12.26100    3.30800    1.07300 #   O
137    46    2    0.41000  -11.64300    3.69000    1.71400 #   H
138    46    2    0.41000  -12.02800    2.36700    1.05400 #   H
139    47    3   -0.82000    2.97500   -6.96600   -6.95400 #   O
140    47    2    0.41000    3.57000   -7.13200   -6.20800 #   H
141    47    2    0.41000    2.31100   -7.66900   -6.88500 #   H
142    48    3   -0.82000    4.81100   -7.10300   -1.32400 #   O
143    48    2    0.41000    4.99100   -7.14400   -0.37300 #   H
144    48    2    0.41000    5.11300   -7.96100   -1.65800 #   H
145    49    3   -0.82000    8.01800    0.59800    8.91000 #   O
146    49    2    0.41000    7.48400    1.38400    8.71900 #   H
147    49    2    0.41000    7.92900    0.05500    8.11200 #   H
148    50    3   -0.82000  -11.51400    1.32800    6.74400 #   O
149    50    2    0.41000  -11.54100    2.23400    6.39900 #   H
150    50    2    0.41000  -10.72800    0.94300    6.32800 #   H
151    51    3   -0.82000  -14.92800   -2.48000   -1.80100 #   O
152    51    2    0.41000  -15.65100   -2.66800   -1.18400 #   H
153    51    2    0.41000  -15.05400   -1.54800   -2.03300 #   H
154    52    3   -0.82000   -0.72200   -2.71900   -5.74500 #   O
155    52    2    0.41000   -1.47600   -2.51800   -5.17100 #   H
156    52    2    0.41000    0.03800   -2.34400   -5.27300 #   H
157    53    3   -0.82000  -19.95300   -9.63300    4.95300 #   O
158    53    2    0.41000  -20.90200   -9.82700    4.91500 #   H
159    53    2    0.41000  -19.53200  -10.50000    4.85400 #   H
160    54    3   -0.82000  -16.45400    1.20300   -9.10100 #   O
161    54    2    0.41000  -16.16300    0.72100   -8.31100 #   H
162    54    2    0.41000  -16.70900    2.07500   -8.76300 #   H
163    55    3   -0.82000  -19.65300   -5.02200   -8.02400 #   O
164    55    2    0.41000  -19.55500   -5.40300   -7.13900 #   H
165    55    2    0.41000  -19.86300   -4.09100   -7.85600 #   H
166    56    3   -0.82000    7.97200    2.74400   -2.15400 #   O
167    56    2    0.41000    8.45800    1.93100   -2.36100 #   H
168    56    2    0.41000    8.30000    3.38500   -2.80200 #   H
169    57    3   -0.82000   20.05800   -1.90000   -9.82200 #   O
170    57    2    0.41000   19.49200   -1.38900   -9.22500 #   H
171    57    2    0.41000   20.13800   -2.76400   -9.38900 #   H
172    58    3   -0.82000   11.63000    4.96300    0.71600 #   O
173    58    2    0.41000   12.21400    4.20200    0.57700 #   H
174    58    2    0.41000   11.84900    5.56200   -0.01300 #   H
175    59    3   -0.82000   22.00000   -8.88500    1.23200 #   O
176    59    2    0.41000   21.06500   -8.63500    1.27700 #   H
177    59    2    0.41000   22.00000   -9.69900    0.70600 #   H
178    60    3   -0.82000  -16.71700    9.64900    7.73700 #   O
179    60    2    0.41000  -16.63400    8.68300    7.75300 #   H
180    60    2    0.41000  -15.95000    9.94100    7.22200 #   H
181    61    3   -0.82000  -18.78800    1.65700   -7.78000 #   O
182    61    2    0.41000  -18.23400    2.18300   -7.18500 #   H
183    61    2    0.41000  -19.65400    2.09100   -7.74000 #   H
184    62    3   -0.82000  -11.05900   -1.71700    7.34600 #   O
185    62    2    0.41000  -10.36800   -1.09500    7.07300 #   H
186    62    2    0.41000  -11.53700   -1.91100    6.52500 #   H
187    63    3   -0.82000  -14.55800   -4.69500   -8.53600 #   O
188    63    2    0.41000  -14.95200   -3.93300   -8.08500 #   H
189    63    2    0.41000  -15.20400   -5.40500   -8.40500 #   H
190    64    3   -0.82000   12.07300    0.65400   -2.64000 #   O
191    64    2    0.41000   12.89900    0.91000   -2.20200 #   H
192    64    2    0.41000   11.62600    1.49700   -2.80900 #   H
193    65    3   -0.82000   19.41800   -9.93400    3.16400 #   O
194    65    2    0.41000   20.06400  -10.50000    3.61200 #   H
195    65    2    0.41000   19.64400  -10.01700    2.22500 #   H
196    66    3   -0.82000   10.24000   -9.72700    2.53000 #   O
197    66    2    0.41000    9.69300   -9.22300    3.15100 #   H
198    66    2    0.41000   11.14700   -9.46900    2.75500 #   H
199    67    3   -0.82000   11.22400    3.98400    4.33900 #   O
200    67    2    0.41000   11.81300    3.47100    4.91200 #   H
201    67    2    0.41000   10.67100    3.31400    3.91000 #   H
202    68    3   -0.82000  -11.13100   -5.96600   10.50000 #   O
203    68    2    0.41000  -11.96400   -5.50600   10.32000 #   H
204    68    2    0.41000  -10.45000   -5.30200   10.31100 #   H
205    69    3   -0.82000   -8.94900   -6.82200    0.93700 #   O
206    69    2    0.41000   -9.87900   -7.07900    1.02600 #   H
207    69    2    0.41000   -8.53900   -7.57800    0.49000 #   H
208    70    3   -0.82000  -19.69400   -1.91200    9.39800 #   O
209    70    2    0.41000  -19.08600   -1.95300   10.15100 #   H
210    70    2    0.41000  -19.38600   -2.61700    8.80900 #   H
211    71    3   -0.82000   -2.60300   -1.05800   10.08100 #   O
212    71    2    0.41000   -1.90500   -0.51900   10.48100 #   H
213    71    2    0.41000   -2.25100   -1.96000   10.11400 #   H
214    72    3   -0.82000    3.14500   -9.61900    8.02200 #   O
215    72    2    0.41000    3.34200  -10.46200    8.45600 #   H
216    72    2    0.41000    2.28600   -9.36100    8.39000 #   H
217    73    3   -0.82000   19.30200    8.17300    3.34600 #   O
218    73    2    0.41000   19.07900    7.24100    3.49100 #   H
219    73    2    0.41000   19.20700    8.29100    2.38800 #   H
220    74    3   -0.82000    4.33500    5.97900    8.20600 #   O
221    74    2    0.41000    4.75800    6.68500    8.71800 #   H
222    74    2    0.41000    3.38900    6.10000    8.37900 #   H
223    75    3   -0.82000   16.83600   -8.28500   -2.76600 #   O
224    75    2    0.41000   16.47100   -9.00700   -2.23200 #   H
225    75    2    0.41000   17.14100   -8.72300   -3.57400 #   H
226    76    3   -0.82000   11.09700   -2.46900   -7.82700 #   O
227    76    2    0.41000   11.87700   -1.98700   -7.51500 #   H
228    76    2    0.41000   11.18500   -2.45700   -8.79200 #   H
229    77    3   -0.82000   14.79600   -3.61000    5.65300 #   O
230    77    2    0.41000   15.73700   -3.61300    5.42400 #   H
231    77    2    0.41000   14.41500   -2.93700    5.06900 #   H
232    78    3   -0.82000   -6.73100   -3.05200   -4.57800 #   O
233    78    2    0.41000   -6.16500   -3.74400   -4.95200 #   H
234    78    2    0.41000   -7.27400   -2.76300   -5.32600 #   H
235    79    3   -0.82000   16.50800   -1.68900   -0.79700 #   O
236    79    2    0.41000   17.27300   -2.07000   -0.34000 #   H
237    79    2    0.41000   16.69200   -0.73800   -0.80900 #   H
238    80    3   -0.82000   18.08500   -3.36300   -9.89300 #   O
239    80    2    0.41000   17.65900   -3.13500   -9.05200 #   H
240    80    2    0.41000   17.79200   -2.66700  -10.50000 #   H
241    81    3   -0.82000   -7.72200    4.38000    5.14600 #   O
242    81    2    0.41000   -7.00100    4.84800    4.70000 #   H
243    81    2    0.41000   -7.76700    3.52700    4.68800 #   H
244    82    3   -0.82000    7.25400    8.82900    9.37300 #   O
245    82    2    0.41000    7.72100    7.99100    9.23500 #   H
246    82    2    0.41000    7.65200    9.42900    8.72400 #   H
247    83    3   -0.82000   -8.99200    0.00900    9.96600 #   O
248    83    2    0.41000   -9.33000    0.86100   10.28200 #   H
249    83    2    0.41000   -8.05300    0.17800    9.79800 #   H
250    84    3   -0.82000   10.61900   -5.07600   -4.86300 #   O
251    84    2    0.41000   10.23100   -4.72000   -4.05000 #   H
252    84    2    0.41000    9.89900   -5.02500   -5.50900 #   H
253    85    3   -0.82000   -0.60900    4.76300    1.08800 #   O
254    85    2    0.41000   -1.30700    5.19200    1.60600 #   H
255    85    2    0.41000   -1.03500    3.96800    0.73400 #   H
256    86    3   -0.82000   -9.58300    0.36300    1.89200 #   O
257    86    2    0.41000   -9.69700   -0.17900    2.68700 #   H
258    86    2    0.41000   -9.66200   -0.27000    1.16300 #   H
259    87    3   -0.82000   -2.80200   -0.75500    3.68300 #   O
260    87    2    0.41000   -2.24100   -1.52800    3.84700 #   H
261    87    2    0.41000   -3.68400   -1.13000    3.54200 #   H
262    88    3   -0.82000   16.45700  -10.18100    0.25000 #   O
263    88    2    0.41000   16.25100   -9.31500    0.63300 #   H
264    88    2    0.41000   15.60500  -10.50000   -0.08300 #   H
265    89    3   -0.82000   -4.41000   -5.56300   -9.81600 #   O
266    89    2    0.41000   -3.81500   -6.18000   -9.36400 #   H
267    89    2    0.41000   -4.85300   -6.11000  -10.48300 #   H
268    90    3   -0.82000    5.62100   -4.63800   -2.78800 #   O
269    90    2    0.41000    5.72200   -4.96700   -1.88200 #   H
270    90    2    0.41000    5.04300   -5.29100   -3.21100 #   H
271    91    3   -0.82000   13.80000    7.03500   -2.60700 #   O
272    91    2    0.41000   12.98500    7.44400   -2.93400 #   H
273    91    2    0.41000   13.82000    6.17100   -3.04500 #   H
274    92    3   -0.82000  -19.13600   -4.07900  -10.33200 #   O
275    92    2    0.41000  -19.30900   -5.03100  -10.30300 #   H
276    92    2    0.41000  -18.17900   -4.01900  -10.47200 #   H
277    93    3   -0.82000   14.30800   -9.20800   -7.61800 #   O
278    93    2    0.41000   13.78200   -8.54700   -7.14300 #   H
279    93    2    0.41000   13.66900   -9.90300   -7.83600 #   H
280    94    3   -0.82000   21.50000    0.68600    6.65800 #   O
281    94    2    0.41000   21.23500   -0.24500    6.71600 #   H
282    94    2    0.41000   20.77200    1.10800    6.17900 #   H
283    95    3   -0.82000    6.09200    5.20300   -6.76200 #   O
284    95    2    0.41000    5.31500    4.65500   -6.57500 #   H
285    95    2    0.41000    6.56500    4.71100   -7.44900 #   H
286    96    3   -0.82000   18.37500   -6.95600    6.37800 #   O
287    96    2    0.41000   18.05400   -7.72300    5.88100 #   H
288    96    2    0.41000   19.05900   -6.57600    5.80700 #   H
289    97    3   -0.82000   20.53300    5.69900    5.81900 #   O
290    97    2    0.41000   20.62400    6.65400    5.68600 #   H
291    97    2    0.41000   20.53500    5.33600    4.92100 #   H
292    98    3   -0.82000    2.27600   -6.12400   10.14700 #   O
293    98    2    0.41000    2.44900   -7.06000   10.32900 #   H
294    98    2    0.41000    3.15100   -5.71000   10.19800 #   H
295    99    3   -0.82000   -6.48700    0.09700   -0.40100 #   O
296    99    2    0.41000   -5.72700    0.62900   -0.12300 #   H
297    99    2    0.41000   -6.28600   -0.13600   -1.32100 #   H
298   100    3   -0.82000    5.10600    6.57200    1.60700 #   O
299   100    2    0.41000    5.56900    6.93200    2.37900 #   H
300   100    2    0.41000    5.36900    5.63900    1.58900 #   H
301   101    3   -0.82000    4.16400   -5.01800    2.30900 #   O
302   101    2    0.41000    3.99000   -4.18900    2.77900 #   H
303   101    2    0.41000    3.31500   -5.48600    2.33600 #   H
304   102    3   -0.82000   -1.89300   -8.66300   -1.16700 #   O
305   102    2    0.41000   -1.54600   -8.36100   -0.31400 #   H
306   102    2    0.41000   -2.84800   -8.73900   -1.01700 #   H
307   103    3   -0.82000   -4.65600    6.74300    7.94600 #   O
308   103    2    0.41000   -5.15800    6.17900    8.55300 #   H
309   103    2    0.41000   -4.54800    7.57400    8.43200 #   H
310   104    3   -0.82000    0.74900   -2.44600   -7.34100 #   O
311   104    2    0.41000    0.08100   -1.77300   -7.53800 #   H
312   104    2    0.41000    0.45300   -3.22300   -7.84000 #   H
313   105    3   -0.82000    8.12300   -9.96400   -6.19800 #   O
314   105    2    0.41000    7.78000   -9.08500   -6.41900 #   H
315   105    2    0.41000    7.91400  -10.50000   -6.97700 #   H
316   106    3   -0.82000    7.90900    6.41600    4.90700 #   O
317   106    2    0.41000    7.07500    6.82700    4.63400 #   H
318   106    2    0.41000    8.58800    7.02700    4.58300 #   H
319   107    3   -0.82000   13.68500    3.26900    2.07200 #   O
320   107    2    0.41000   12.83900    3.27700    2.54400 #   H
321   107    2    0.41000   13.66700    2.44000    1.57200 #   H
322   108    3   -0.82000    3.94900   -1.78200    9.59900 #   O
323   108    2    0.41000    4.25200   -2.58800   10.04400 #   H
324   108    2    0.41000    4.72300   -1.19900    9.61800 #   H
325   109    3   -0.82000  -11.73000   -5.28900    3.90100 #   O
326   109    2    0.41000  -11.49000   -5.27700    4.84000 #   H
327   109    2    0.41000  -10.95700   -5.67900    3.46600 #   H
328   110    3   -0.82000   19.32000   -6.84500   -1.10600 #   O
329   110    2    0.41000   18.51400   -7.38000   -1.05600 #   H
330   110    2    0.41000   19.41800   -6.65700   -2.05100 #   H
331   111    3   -0.82000  -20.55600   -3.91100    5.97900 #   O
332   111    2    0.41000  -21.09600   -4.65200    6.29400 #   H
333   111    2    0.41000  -21.01600   -3.60800    5.18100 #   H
334   112    3   -0.82000   -8.46000   -2.51800    5.61600 #   O
335   112    2    0.41000   -8.48000   -2.61900    6.57900 #   H
336   112    2    0.41000   -8.55700   -3.42400    5.28300 #   H
337   113    3   -0.82000   -4.86700   -7.76900    8.01300 #   O
338   113    2    0.41000   -4.06400   -8.27100    8.22200 #   H
339   113    2    0.41000   -4.73400   -7.48600    7.09600 #   H
340   114    3   -0.82000   -2.89000    1.57600  -10.10500 #   O
341   114    2    0.41000   -3.45300    2.20300   -9.62500 #   H
342   114    2    0.41000   -2.02100    1.67600   -9.68900 #   H
343   115    3   -0.82000   -9.40900    2.78600    6.80300 #   O
344   115    2    0.41000   -9.02100    3.54100    7.27100 #   H
345   115    2    0.41000   -9.05300    2.01400    7.26800 #   H
346   116    3   -0.82000   -2.26000   -5.18100   -4.40300 #   O
347   116    2    0.41000   -1.38500   -5.17300   -3.98800 #   H
348   116    2    0.41000   -2.54000   -4.25300   -4.37600 #   H
349   117    3   -0.82000  -20.12200    0.48600   -3.94400 #   O
350   117    2    0.41000  -20.15900    0.22900   -3.01000 #   H
351   117    2    0.41000  -19.89900   -0.33600   -4.40500 #   H
352   118    3   -0.82000   20.17000    1.40800    3.28500 #   O
353   118    2    0.41000   19.27800    1.34500    3.65800 #   H
354   118    2    0.41000   20.63200    0.63900    3.65000 #   H
355   119    3   -0.82000   13.71500   -7.96600   10.39900 #   O
356   119    2    0.41000   12.95100   -8.55400   10.50000 #   H
357   119    2    0.41000   14.34700   -8.48900    9.88400 #   H
358   120    3   -0.82000   10.38400    8.33800    4.27000 #   O
359   120    2    0.41000   11.00000    8.03700    4.95500 #   H
360   120    2    0.41000   10.47600    9.30200    4.27900 #   H
361   121    3   -0.82000    6.80800   -7.27300   -7.18500 #   O
362   121    2    0.41000    7.67800   -6.90900   -6.96300 #   H
363   121    2    0.41000    6.30000   -6.50300   -7.48200 #   H
364   122    3   -0.82000  -11.59700   -7.46300    5.10400 #   O
365   122    2    0.41000  -11.22700   -7.91100    5.87900 #   H
366   122    2    0.41000  -12.47100   -7.16600    5.39900 #   H
367   123    3   -0.82000   -5.34800    3.30200   10.48300 #   O
368   123    2    0.41000   -6.02800    3.89200   10.12500 #   H
369   123    2    0.41000   -4.58300    3.44800    9.90600 #   H
370   124    3   -0.82000  -18.11700   -8.91000   -4.98500 #   O
371   124    2    0.41000  -17.27800   -8.42600   -4.97300 #   H
372   124    2    0.41000  -17.85300   -9.83300   -5.11700 #   H
373   125    3   -0.82000  -13.79700    0.34700   -0.09400 #   O
374   125    2    0.41000  -13.05500    0.47600    0.51600 #   H
375   125    2    0.41000  -13.79100   -0.60600   -0.27300 #   H
376   126    3   -0.82000   -4.99200    1.15000    3.81900 #   O
377   126    2    0.41000   -5.50600    0.55200    4.38200 #   H
378   126    2    0.41000   -4.95500    0.69400    2.96500 #   H
379   127    3   -0.82000   19.86400   -7.61000   -4.62600 #   O
380   127    2    0.41000   20.29500   -6.75200   -4.75300 #   H
381   127    2    0.41000   18.98100   -7.48800   -5.00700 #   H
382   128    3   -0.82000   11.54800    9.45600    2.33700 #   O
383   128    2    0.41000   12.34100    8.91900    2.48700 #   H
384   128    2    0.41000   10.85200    8.80400    2.16500 #   H
385   129    3   -0.82000   20.05800   -3.21500    2.32800 #   O
386   129    2    0.41000   20.55500   -3.97200    2.67400 #   H
387   129    2    0.41000   20.14400   -3.29700    1.36700 #   H
388   130    3   -0.82000    1.35100    3.08100    1.44000 #   O
389   130    2    0.41000    1.18600    2.13000    1.51700 #   H
390   130    2    0.41000    2.22900    3.13500    1.03300 #   H
391   131    3   -0.82000  -10.88400    1.79300   -2.23600 #   O
392   131    2    0.41000  -10.84000    2.52100   -1.59900 #   H
393   131    2    0.41000  -11.82600    1.73000   -2.45600 #   H
394   132    3   -0.82000  -13.31100    3.19000   -3.44800 #   O
395   132    2    0.41000  -14.23800    3.36000   -3.22100 #   H
396   132    2    0.41000  -13.21500    3.56600   -4.33600 #   H
397   133    3   -0.82000  -14.97600   -7.09900   -4.60400 #   O
398   133    2    0.41000  -14.82900   -6.26400   -4.13400 #   H
399   133    2    0.41000  -15.39700   -6.83000   -5.43400 #   H
400   134    3   -0.82000   21.67500  -10.10900    5.67400 #   O
401   134    2    0.41000   21.44200  -10.50000    6.52900 #   H
402   134    2    0.41000   22.00000   -9.22500    5.90100 #   H
403   135    3   -0.82000    0.99400    7.06600   -9.12200 #   O
404   135    2    0.41000    0.35900    7.29100   -8.42600 #   H
405   135    2    0.41000    0.46200    7.06300   -9.93200 #   H
406   136    3   -0.82000   13.64100    5.51800    8.08600 #   O
407   136    2    0.41000   14.54100    5.26500    8.33900 #   H
408   136    2    0.41000   13.19100    4.67200    7.94200 #   H
409   137    3   -0.82000   -0.29000    8.26800   -1.70900 #   O
410   137    2    0.41000   -0.17500    8.07200   -0.76700 #   H
411   137    2    0.41000   -0.75100    7.48900   -2.05600 #   H
412   138    3   -0.82000   10.89600    8.50000   -5.07400 #   O
413   138    2    0.41000   10.89500    8.08300   -4.19900 #   H
414   138    2    0.41000   11.52700    7.97100   -5.58500 #   H
415   139    3   -0.82000   17.40400   -6.29700   -3.90700 #   O
416   139    2    0.41000   17.14000   -5.39000   -3.69100 #   H
417   139    2    0.41000   16.65800   -6.64300   -4.41900 #   H
418   140    3   -0.82000    7.84800   -3.43200   -2.00100 #   O
419   140    2    0.41000    7.84600   -4.39600   -1.90800 #   H
420   140    2    0.41000    8.75200   -3.22600   -2.28300 #   H
421   141    3   -0.82000  -17.10400    1.30900    4.29500 #   O
422   141    2    0.41000  -16.59900    0.64600    4.78800 #   H
423   141    2    0.41000  -16.57400    2.11600    4.37700 #   H
424   142    3   -0.82000    9.98200    6.94500    8.48900 #   O
425   142    2    0.41000   10.04900    7.74800    9.02700 #   H
426   142    2    0.41000   10.89200    6.61400    8.44700 #   H
427   143    3   -0.82000   13.28200    6.00100    5.70700 #   O
428   143    2    0.41000   13.95800    5.34000    5.91700 #   H
429   143    2    0.41000   12.46200    5.48800    5.64700 #   H
430   144    3   -0.82000   -5.34400   -6.68600   -2.22400 #   O
431   144    2    0.41000   -4.99200   -6.20500   -1.46000 #   H
432   144    2    0.41000   -4.56500   -7.11500   -2.61000 #   H
433   145    3   -0.82000   -8.52900   -1.43100   -3.09500 #   O
434   145    2    0.41000   -9.03600   -1.89000   -2.40800 #   H
435   145    2    0.41000   -8.67200   -1.96800   -3.88900 #   H
436   146    3   -0.82000   11.31600    1.02400   -5.81200 #   O
437   146    2    0.41000   10.74000    1.77400   -6.02300 #   H
438   146    2    0.41000   11.55900    0.66400   -6.67800 #   H
439   147    3   -0.82000    9.35600   -7.45700   -9.55000 #   O
440   147    2    0.41000    8.65600   -7.35300   -8.88800 #   H
441   147    2    0.41000    9.85000   -8.23400   -9.24800 #   H
442   148    3   -0.82000    0.14000    1.67100    4.81600 #   O
443   148    2    0.41000    0.14400    0.78300    5.20600 #   H
444   148    2    0.41000    1.04100    1.78300    4.47900 #   H
445   149    3   -0.82000    7.60100    8.57400   -0.61800 #   O
446   149    2    0.41000    8.30200    8.55800    0.05100 #   H
447   149    2    0.41000    7.98600    9.07800   -1.35000 #   H
448   150    3   -0.82000  -12.96600   -5.26900   -6.50600 #   O
449   150    2    0.41000  -13.78000   -5.79500   -6.49600 #   H
450   150    2    0.41000  -12.61000   -5.40400   -7.39700 #   H
451   151    3   -0.82000  -10.10600    5.42400    0.45200 #   O
452   151    2    0.41000  -10.85000    6.04100    0.51700 #   H
453   151    2    0.41000  -10.49800    4.62100    0.07800 #   H
454   152    3   -0.82000   -3.10100    7.91800    2.09400 #   O
455   152    2    0.41000   -2.15900    7.71000    2.00200 #   H
456   152    2    0.41000   -3.32200    8.37400    1.26900 #   H